 A simple polymer data file. The first line is ignored.
 
 25 atoms
 2  atom types
 24 bonds
 1  bond types
 
 0 2  xlo xhi
 0 2  ylo yhi
 0 14 zlo zhi
 
 Masses
 
 1 1.0
 2 1.0
 
 Atoms
 
  1 1 1 1 1  1
  2 1 1 1 1  1.5
  3 1 1 1 1  2
  4 1 1 1 1  2.5
  5 1 1 1 1  3
  6 1 2 1 1  3.5
  7 1 2 1 1  4
  8 1 2 1 1  4.5
  9 1 2 1 1  5
 10 1 1 1 1  5.5
 11 1 1 1 1  6
 12 1 1 1 1  6.5
 13 1 1 1 1  7
 14 1 1 1 1  7.5
 15 1 1 1 1  8
 16 1 1 1 1  8.5
 17 1 2 1 1  9
 18 1 2 1 1  9.5
 19 1 2 1 1 10
 20 1 2 1 1 10.5
 21 1 1 1 1 11
 22 1 1 1 1 11.5
 23 1 1 1 1 12
 24 1 1 1 1 12.5
 25 1 1 1 1 13
 
 Bonds
 
  1 1  1  2
  2 1  2  3
  3 1  3  4
  4 1  4  5
  5 1  5  6
  6 1  6  7
  7 1  7  8
  8 1  8  9
  9 1  9 10
 10 1 10 11
 11 1 11 12
 12 1 12 13
 13 1 13 14
 14 1 14 15
 15 1 15 16
 16 1 16 17
 17 1 17 18
 18 1 18 19
 19 1 19 20
 20 1 20 21
 21 1 21 22
 22 1 22 23
 23 1 23 24
 24 1 24 25

