ITEM: TIMESTEP
0
ITEM: NUMBER OF ATOMS
32000
ITEM: BOX BOUNDS ff ff ff
0 33.5919
0 33.5919
0 33.5919
ITEM: ATOMS id type x y z ix iy iz vx vy vz
45 1 1.49129 0.377483 0.422044 0 0 0 0.187148 0.402223 0.8601 
19607 1 1.64578 32.9106 0.529487 0 -1 1 -1.30891 0.964146 0.730785 
802 1 1.70623 2.00775 0.577074 0 0 0 -0.889777 1.01422 -0.106257 
19647 1 2.99982 1.62908 0.402608 0 0 1 -0.60813 0.188637 1.94766 
19612 1 3.7964 1.16476 33.3873 0 0 0 2.57694 1.06977 -2.06189 
14 1 5.75712 1.02979 33.5387 0 0 -1 -0.626246 0.73342 1.66134 
455 1 5.4425 2.34603 1.33445 0 0 0 0.93286 0.321002 0.114877 
19656 1 3.87086 0.86256 0.680695 0 0 1 0.662071 0.213804 1.03919 
27975 1 5.83276 1.42683 0.869923 0 1 1 -1.39931 1.52099 0.121827 
8380 1 4.15554 2.19317 0.802268 0 1 0 -0.151183 -0.735989 0.190573 
17 1 5.14364 1.05898 3.29726 0 0 0 0.302019 -0.264926 1.99631 
55 1 6.49266 1.36483 1.84417 0 0 0 -1.95653 1.95482 1.31608 
15 1 5.39826 32.6783 0.238095 0 -1 0 1.6555 -0.593874 -0.439465 
19622 1 6.68385 0.806266 0.702728 0 0 1 -0.477949 1.23278 1.41072 
101 1 7.40849 0.987231 1.74119 0 0 0 -0.843815 0.954718 3.13962 
19665 1 7.34823 1.5472 0.694459 0 0 1 0.649488 1.81983 -1.03217 
19664 1 10.5051 1.51845 1.93673 0 0 1 0.394284 0.41733 0.954906 
8783 1 9.46485 0.866033 3.12078 0 1 0 0.693032 0.406363 0.562107 
461 1 9.52218 1.82852 1.00964 0 0 0 -0.955566 0.155806 1.02319 
26 1 9.9446 0.467681 0.775081 0 0 0 1.13314 -1.11937 0.0414133 
65 1 10.1018 33.3175 0.0523985 0 -1 0 -0.708346 2.04707 -1.94943 
426 1 10.5925 32.4786 0.258436 0 -1 0 0.86156 0.782903 0.333414 
115 1 13.8878 1.01971 32.9891 0 0 -1 -0.64229 -2.14408 -0.386838 
9186 1 13.1469 0.246355 0.364219 0 1 0 0.970537 -0.9146 0.621212 
19631 1 13.3408 33.5746 32.7386 0 -1 0 0.481079 -0.90172 0.0969775 
476 1 14.1028 33.4402 1.05232 0 -1 0 1.30619 0.0211039 -0.281405 
71 1 14.0395 1.14512 1.13293 0 0 0 0.220906 1.45826 0.0688314 
36 1 13.2659 32.8749 0.730485 0 -1 0 -1.70659 -0.341539 2.05095 
4441 1 15.5846 1.9341 32.7189 0 0 -1 0.348723 2.91067 -0.488449 
8386 1 15.7454 33.3212 2.456 0 0 0 -0.871021 0.781023 0.969874 
4012 1 15.8988 1.27998 33.427 0 0 -1 1.32659 1.37903 0.859628 
479 1 15.9248 0.650859 0.779571 0 0 0 -1.89181 0.213128 0.404429 
4482 1 16.7266 1.74712 0.756648 0 0 0 -0.318539 -1.00049 1.36114 
4051 1 18.7125 1.49195 0.692291 0 0 0 -2.2999 1.48983 -0.15405 
4049 1 17.8333 0.609155 0.24014 0 0 0 -0.245513 1.66424 -0.270129 
4052 1 20.2998 0.27193 1.06355 0 0 0 1.71729 -1.91298 0.830033 
12773 1 21.7424 0.577581 2.46712 0 1 0 -0.137208 -0.719199 -0.259828 
12693 1 23.4176 0.0535011 0.893833 0 1 0 3.91781 1.44912 0.842199 
23616 1 21.8594 1.43508 1.49974 0 0 1 -0.898164 2.27084 0.498094 
4020 1 22.7107 0.82185 1.50363 0 0 0 -0.680679 0.614038 2.73851 
12374 1 23.8454 1.15076 0.655394 0 1 0 0.660334 -0.282139 -0.217361 
12371 1 23.3277 32.8042 1.39597 0 0 0 -0.285571 -2.74976 0.92198 
23614 1 21.0508 2.16407 1.72581 0 0 1 -2.54496 -0.705562 -1.08048 
12378 1 24.6972 0.604463 1.17709 0 1 0 -0.317882 2.44655 0.0586176 
12786 1 25.6046 0.44981 1.70889 0 1 0 0.29219 -0.969655 -2.68886 
23628 1 25.5824 2.52914 1.01106 0 0 1 -0.191786 -1.71257 -1.31574 
12383 1 27.39 0.240292 0.728568 0 1 0 0.325873 0.348745 0.941627 
4027 1 26.4512 33.0584 0.325698 0 -1 0 -0.158891 0.689979 -0.30287 
4421 1 26.6663 0.784302 33.5275 0 0 -1 -2.41043 -0.997439 -0.438408 
23617 1 25.6682 0.0258304 33.5726 0 0 0 0.925996 -0.340389 -1.25084 
23672 1 27.8629 1.99741 2.3058 0 0 1 -1.57862 1.15417 0.732596 
23663 1 28.3966 1.33622 1.20917 0 0 1 -0.963273 1.58843 0.481622 
23632 1 29.3193 1.77416 0.677343 0 0 1 -1.2116 -3.61762 -1.52282 
23279 1 30.5774 0.840048 0.00810963 0 0 1 1.77542 3.30061 -0.0744298 
4080 1 31.2093 0.416152 1.04471 0 0 0 1.46284 -0.602622 -0.164758 
23280 1 31.554 1.21769 33.5431 0 0 0 0.855064 0.246199 0.847287 
4033 1 33.1568 33.252 0.514266 0 -1 0 1.6151 -1.3445 -1.33128 
8 1 33.4033 2.16362 0.576809 -1 0 0 -2.07592 -1.02226 0.0446134 
443 1 33.3368 1.74342 32.8125 -1 0 -1 1.68682 -1.74449 0.0675091 
4519 1 0.45757 1.69203 1.47247 1 0 0 0.496182 -3.53309 -1.1986 
808 1 1.47028 1.04118 1.09621 0 0 0 0.525829 0.0516565 0.276711 
404 1 0.751857 2.3371 0.700349 0 0 0 -1.16105 -0.555018 0.387689 
4079 1 0.579824 2.15026 33.3178 1 0 -1 -0.910727 -1.39824 2.09737 
23719 1 0.617756 1.06811 33.1131 1 0 0 -0.0219496 0.893121 -0.306866 
47 1 2.11428 1.46212 1.89105 0 0 0 3.26137 -1.35072 -3.51664 
19690 1 0.594453 1.30857 0.461962 0 0 1 0.0790788 1.37553 0.146373 
19691 1 4.27527 2.38298 1.86385 0 0 1 -1.4738 -0.931648 0.620326 
490 1 2.61149 0.783568 33.3178 0 0 -1 0.655057 0.38279 -2.64812 
449 1 2.00708 3.00058 0.964584 0 0 0 -0.310532 -0.73794 -0.628913 
19252 1 3.11338 2.92887 0.533654 0 0 1 -0.148946 0.449479 -0.319085 
19693 1 4.69906 1.35327 1.4467 0 0 1 2.03748 -0.629145 0.780803 
19224 1 6.57278 1.81217 0.179426 0 0 1 0.208324 0.279266 0.692788 
19654 1 6.53362 2.16517 1.24002 0 0 1 -0.337036 -0.800232 -1.0003 
19662 1 7.06446 3.2436 1.58299 0 0 1 -0.896441 -0.870912 2.39393 
459 1 7.53891 2.05006 1.73928 0 0 0 -1.09273 -0.295623 0.443595 
503 1 9.84638 2.66295 1.59144 0 0 0 1.585 -0.219106 1.0729 
28 1 8.01306 0.980132 0.22169 0 0 0 0.20819 -0.718692 -0.647393 
467 1 11.1641 1.29835 0.94788 0 0 0 -0.998851 2.49619 -1.23762 
19627 1 13.2718 1.55518 0.452634 0 0 1 -0.181403 -0.365306 -1.24482 
68 1 10.4351 2.98614 0.7988 0 0 0 -0.633958 0.36212 0.862146 
66 1 11.9917 1.78318 32.934 0 0 -1 -0.934943 0.445824 -2.56568 
111 1 12.8085 2.63754 1.03446 0 0 0 -0.921018 1.73876 2.14019 
469 1 13.0507 1.96366 32.9649 0 0 -1 -0.0504244 -1.58828 1.43882 
62 1 11.8807 1.9641 0.428067 0 0 0 -1.2829 2.28895 0.147076 
109 1 12.4185 2.63814 33.2895 0 0 -1 0.180639 -1.13385 0.0554071 
19671 1 16.1393 2.38728 0.0667017 0 0 1 0.368758 -3.21657 0.680774 
517 1 13.7674 2.05812 1.24565 0 0 0 -1.1098 -0.40912 0.318808 
4481 1 14.8639 1.96076 1.60839 0 0 0 -0.313696 0.612255 -2.24565 
80 1 14.7054 3.91051 33.0977 0 0 -1 0.964974 -1.00451 -2.06576 
4445 1 17.1101 2.10543 33.542 0 0 -1 0.504524 -1.81612 0.437701 
4005 1 17.7366 2.87096 0.799018 0 0 0 -0.998797 -0.634747 -1.59827 
4444 1 16.317 2.31527 1.58782 0 0 0 -0.493044 -0.712721 0.676938 
4043 1 18.0267 1.79165 33.4028 0 0 -1 -0.641124 1.19219 -0.337258 
4003 1 18.5388 3.23184 1.49275 0 0 0 -0.0896528 1.43958 0.464104 
13162 1 18.5749 2.44868 0.417544 0 1 0 0.512092 1.98969 -0.414152 
4409 1 18.7018 2.22126 1.42282 0 0 0 -1.66351 -0.248243 2.23771 
4486 1 18.794 0.844628 33.3172 0 0 -1 -0.399813 -0.394935 0.25726 
4092 1 18.9177 2.40905 32.9675 0 0 -1 0.5667 1.62283 -0.449946 
4454 1 21.3578 3.04773 0.972913 0 0 0 -3.07354 -1.07557 0.354827 
12384 1 20.914 0.970019 1.95319 0 1 0 -0.188328 0.50739 0.894559 
31974 1 20.9681 2.46541 0.321238 0 1 1 -1.00227 1.3512 -0.610028 
4424 1 23.1868 3.35091 0.64459 0 0 0 2.5402 -1.54221 1.13381 
4017 1 23.2555 2.55946 1.29443 0 0 0 1.06346 0.511381 1.44323 
4103 1 25.1236 3.48283 1.16012 0 0 0 -0.886367 -0.148495 -0.760743 
13134 1 23.0317 1.84795 0.590033 0 1 0 -1.2801 -0.101315 2.13807 
4018 1 23.7783 2.31615 33.5008 0 0 -1 -0.0600498 -0.482061 -0.636532 
4101 1 24.3313 2.92059 0.63841 0 0 0 0.39285 1.05952 0.869007 
4063 1 25.9078 1.49691 0.020104 0 0 0 0.483108 -1.84755 0.436793 
4105 1 27.1798 2.83648 0.00853058 0 0 0 0.530244 0.445233 0.492601 
4465 1 26.2841 1.42757 1.03816 0 0 0 -1.21543 -2.87149 -2.09794 
31552 1 27.3677 1.24153 0.784562 0 1 1 -1.52124 0.159473 0.355705 
4068 1 27.8205 3.25898 0.839719 0 0 0 0.440315 1.33713 -0.411411 
12788 1 27.9298 2.13571 0.589656 0 1 0 0.569201 -0.37805 -2.37966 
23670 1 27.3799 3.9734 32.3926 0 0 0 0.197635 0.325837 0.0767092 
4425 1 30.1184 1.17791 0.984762 0 0 0 -0.420335 1.69842 -1.46259 
4036 1 28.6898 2.41583 1.62807 0 0 0 -0.739584 0.314024 -1.13163 
4869 1 29.2944 2.77627 2.33762 0 0 0 0.728198 -1.81653 -1.32085 
4076 1 29.6122 1.46512 33.2699 0 0 -1 0.252262 -1.26776 -0.381492 
4032 1 33.2201 1.00157 33.4194 0 0 -1 1.24776 1.48361 -0.0869693 
23715 1 31.6123 0.913083 2.19622 0 0 1 0.0444636 1.69748 1.38855 
23676 1 32.5608 1.8225 33.4434 0 0 0 0.00957177 -0.0732255 -2.55833 
4111 1 32.3536 1.76213 0.921193 0 0 0 -1.87828 1.70604 -0.256882 
4117 1 32.9301 2.10657 1.71892 0 0 0 1.60851 -0.0813227 1.87372 
446 1 0.794244 4.42178 1.07436 0 0 0 -0.0678735 0.933922 -1.5227 
123 1 1.53971 4.01786 0.542434 0 0 0 -0.774459 0.655285 -0.266648 
486 1 0.649669 2.95325 1.5311 0 0 0 -2.40408 -0.441393 -0.68071 
529 1 4.43191 3.06931 0.925783 0 0 0 -0.527231 0.721929 0.950226 
19295 1 3.77871 3.596 0.188989 0 0 1 -0.507283 0.878864 -0.544375 
94 1 5.37712 2.48519 0.399261 0 0 0 -0.274769 1.05364 -0.452339 
104 1 6.13488 2.94636 1.80957 0 0 0 -0.519175 -0.19051 0.729138 
19695 1 5.30944 4.06586 0.948305 0 0 1 1.00668 -2.2114 -1.62148 
862 1 8.51067 4.76109 0.944065 0 0 0 -1.28563 0.812294 2.55019 
500 1 8.26427 3.54844 0.341086 0 0 0 0.290785 0.96793 0.51688 
861 1 9.51961 3.85586 33.5153 0 0 -1 -0.523009 -1.15044 0.0103166 
107 1 10.1904 2.45852 2.70677 0 0 0 -0.309246 -0.361926 -0.330555 
19672 1 9.52617 4.6266 0.92066 0 0 1 0.00147905 0.741474 1.09089 
462 1 8.15644 1.40196 1.18409 0 0 0 0.226757 -0.915174 0.757232 
147 1 11.6696 4.61569 1.80437 0 0 0 -1.87642 0.864133 -3.52253 
506 1 10.5848 3.85156 0.274649 0 0 0 1.86102 -0.854728 0.167594 
505 1 10.4192 3.43606 2.13105 0 0 0 1.48126 1.53187 0.267759 
102 1 11.0923 2.78092 1.43264 0 0 0 -1.68394 0.474693 1.92955 
550 1 11.907 3.57597 33.2295 0 0 -1 0.492409 -1.18465 0.765309 
113 1 12.8306 4.82224 1.18622 0 0 0 -1.88825 -1.50945 2.50003 
553 1 14.7082 2.75231 33.5355 0 0 -1 -0.506241 -1.74053 -1.28786 
112 1 12.8154 3.8467 0.766134 0 0 0 2.31217 -0.74285 1.8736 
4442 1 15.7227 4.36266 0.750103 0 0 0 -1.86237 2.29463 -0.429729 
120 1 13.2794 3.63087 1.57601 0 0 0 1.37476 -0.646271 0.550724 
4082 1 16.2857 5.20616 0.885766 0 0 0 1.76085 0.0681945 0.775913 
4084 1 16.4851 3.08057 0.829413 0 0 0 -1.88313 -0.298911 -2.50216 
4483 1 16.7062 3.6573 2.17919 0 0 0 -1.7295 -0.479453 -1.60119 
23688 1 17.2467 3.7861 1.16934 0 0 1 -0.827611 0.89016 -0.201044 
4487 1 18.5529 3.65813 32.7273 0 0 -1 -0.978974 2.10879 -1.86318 
23687 1 17.0921 2.85645 1.59061 0 0 1 -1.02885 -1.68769 1.39204 
4083 1 19.9282 2.82514 33.5681 0 0 -1 -1.5972 -0.0497264 -0.681299 
4046 1 17.9291 3.06476 33.2151 0 0 -1 0.105319 -1.65964 1.34833 
4416 1 18.9895 3.33736 0.253009 0 0 0 -0.759268 0.0369646 -0.615158 
4494 1 19.7938 3.95352 0.233744 0 0 0 -0.19152 2.38409 -2.16153 
12776 1 20.2962 3.80316 1.19159 0 1 0 -0.284561 3.00169 3.16354 
4090 1 19.6463 5.25505 0.211175 0 0 0 -2.31245 1.66738 0.0527347 
4013 1 22.383 3.93011 0.561121 0 0 0 1.047 2.19128 0.251501 
4059 1 23.2683 4.31182 0.175757 0 0 0 -1.96613 -1.54314 -0.682001 
4857 1 23.3883 4.38461 1.12322 0 0 0 -0.552499 0.128736 -0.509601 
4022 1 25.0792 5.26597 1.44172 0 0 0 0.961642 2.56842 -0.951627 
4501 1 23.7784 3.3002 33.3845 0 0 -1 -0.256024 0.27567 -1.3784 
4141 1 25.415 4.5003 0.747413 0 0 0 -0.354978 0.483999 -0.303241 
4436 1 28.8528 2.80856 0.573709 0 0 0 -0.89638 2.65532 -1.98317 
4102 1 26.5725 3.53612 32.7334 0 0 -1 -1.95448 1.43085 -2.39961 
4181 1 27.0356 2.13409 1.11932 0 0 0 0.365831 -1.00617 1.11031 
4066 1 26.4078 3.36742 0.477594 0 0 0 -0.620772 0.63065 -1.15746 
4072 1 28.7423 3.5353 1.42602 0 0 0 1.23813 -0.35745 -1.1402 
4108 1 29.7614 4.06864 1.66399 0 0 0 -0.539468 2.91477 2.29916 
4106 1 29.7516 2.8149 0.958377 0 0 0 -0.484861 1.89751 0.590675 
4070 1 29.8366 2.58977 33.528 0 0 -1 -0.915262 -0.441998 1.3721 
4113 1 29.6186 3.71303 0.609192 0 0 0 -0.526111 -1.54703 1.06953 
4909 1 30.4169 2.49884 1.76716 0 0 0 0.494841 -0.617553 0.482062 
4830 1 30.2345 3.56602 32.0438 0 0 -1 -3.97483 0.319679 0.41502 
81 1 31.1383 3.1982 33.5612 -1 0 -1 0.10493 -0.803816 0.536359 
4112 1 31.0859 2.48531 1.0588 0 0 0 -0.580688 0.00501118 2.3881 
23753 1 31.3087 3.01407 1.8669 0 0 1 -0.147222 -0.117187 -0.329035 
4477 1 33.2905 5.71467 1.56295 0 0 0 0.196325 -0.0415573 -0.464287 
23678 1 0.785765 3.44926 0.533131 1 0 1 1.76893 2.17616 -0.773377 
4157 1 33.0864 2.96026 1.23547 0 0 0 -2.47001 -2.09099 0.0879127 
83 1 33.1905 6.29766 2.41258 -1 0 0 0.70716 -0.117695 3.05541 
44 1 0.0249624 4.11143 0.316635 0 0 0 0.860575 2.21507 1.29216 
482 1 1.45009 6.22743 2.14887 0 0 0 -0.421786 2.25635 0.52969 
124 1 32.4778 5.34019 33.4857 -1 0 -1 1.22008 -2.08532 0.780413 
926 1 33.298 5.05503 0.694539 -1 0 0 -2.03001 1.5423 -0.501907 
125 1 1.97378 4.99443 0.174764 0 0 0 -0.146958 -0.760125 1.13045 
525 1 2.01776 4.80969 1.19074 0 0 0 -1.55903 -1.57569 0.878359 
87 1 2.50679 5.75341 0.439556 0 0 0 1.03654 -1.27439 1.171 
889 1 3.4593 6.14068 1.39372 0 0 0 3.08848 0.791796 0.133814 
19329 1 3.44334 4.72634 0.0880448 0 0 1 0.801916 1.66119 -0.587523 
92 1 4.3689 6.06284 0.610255 0 0 0 -2.11585 -0.853888 -0.388742 
127 1 3.77529 5.08456 1.06111 0 0 0 -0.0156286 1.76931 -1.53029 
136 1 4.84362 5.03617 1.1 0 0 0 -0.312869 0.0170581 0.322019 
501 1 7.34581 4.90566 1.09636 0 0 0 -1.25895 0.486633 0.48918 
19739 1 6.157 4.76593 0.690801 0 0 1 0.805531 2.88715 -0.551211 
19704 1 7.91104 4.11349 1.21459 0 0 1 -0.807073 0.261464 0.0025588 
19779 1 9.28695 6.26054 0.257983 0 0 1 -1.18281 -1.19601 -1.86299 
547 1 10.9572 5.03653 0.0973139 0 0 0 1.47336 1.84346 2.12718 
544 1 9.50408 5.11373 33.5794 0 0 -1 -1.66906 -1.33349 -0.451097 
548 1 10.7951 4.86154 1.08167 0 0 0 -0.863393 -1.26621 2.28758 
151 1 11.0709 4.03532 32.8333 0 0 -1 0.739216 -1.31551 -0.565944 
105 1 10.9927 6.15427 0.621565 0 0 0 0.779445 -2.47599 0.671064 
952 1 13.4667 4.45099 33.4363 0 0 -1 -0.924073 -0.0704444 -1.78322 
193 1 11.9964 5.52394 2.12604 0 0 0 1.73831 -2.12386 -0.506246 
557 1 11.667 4.38846 0.713987 0 0 0 0.696075 -0.0928251 0.454566 
549 1 11.9184 3.44274 1.26972 0 0 0 -1.98172 -2.74228 0.762661 
149 1 11.5299 6.05607 31.787 0 0 -1 1.9817 -0.144577 -0.0105359 
19760 1 14.098 3.53818 0.218108 0 0 1 -1.71744 0.130544 -0.824838 
4124 1 15.4482 6.14508 1.14 0 0 0 0.77871 0.734637 2.10373 
957 1 13.7494 4.50099 0.994272 0 0 0 0.58094 -0.963146 -1.46695 
19675 1 13.5712 2.51621 0.285514 0 0 1 0.297627 0.410005 0.265314 
19755 1 16.664 5.2511 33.1153 0 0 0 -2.11366 -0.69843 -0.215777 
23763 1 16.0186 6.06986 0.200873 0 0 1 -0.229166 0.197634 -0.573356 
23762 1 16.277 4.52741 1.66837 0 0 1 0.362078 -1.29658 0.3728 
23771 1 18.8749 4.59012 33.5341 0 0 0 -2.12415 -0.871643 -1.17956 
4127 1 18.2811 5.41135 0.088 0 0 0 1.56071 0.0945645 0.800705 
4529 1 18.953 5.083 0.964424 0 0 0 0.99824 1.33638 -2.86119 
23772 1 19.9487 5.90309 1.63167 0 0 1 -1.2509 -0.296858 -0.0066815 
4129 1 19.6889 6.08881 0.622556 0 0 0 -0.191749 -1.31385 -1.03529 
4414 1 20.8896 4.89247 1.30544 0 0 0 -0.607863 -0.577104 -0.244404 
4533 1 21.8893 5.39108 1.15084 0 0 0 -1.30137 -0.194764 -0.596277 
4850 1 20.7308 6.42903 33.5798 0 0 -1 -0.247007 -1.29739 1.02941 
4097 1 23.8534 5.11666 0.417461 0 0 0 2.43 0.737689 1.96039 
4459 1 22.5322 4.93104 0.532241 0 0 0 0.184613 0.447305 -0.959439 
4131 1 23.3932 5.54392 1.06318 0 0 0 -0.275647 -1.8809 0.777775 
4575 1 24.557 4.17462 0.531833 0 0 0 -2.14792 1.63671 -0.139037 
4137 1 23.6875 6.21095 33.2778 0 0 -1 1.18053 0.00699945 -1.93456 
4099 1 25.1589 5.37165 0.336299 0 0 0 0.243851 -0.0734176 -1.62567 
4183 1 26.4724 4.68589 0.833309 0 0 0 -0.152057 1.35141 0.918116 
4580 1 26.1798 4.43301 33.1835 0 0 -1 -0.57143 -0.413714 0.440699 
4537 1 26.6374 5.48862 32.8941 0 0 -1 0.120288 -0.15294 -3.00703 
4185 1 27.3964 4.89422 33.3601 0 0 -1 -0.925666 0.816945 -1.96668 
4151 1 27.6292 4.38792 0.571525 0 0 0 -0.757452 0.148741 0.957874 
4187 1 29.9388 5.08672 0.564395 0 0 0 -2.16614 -0.00322207 -0.53809 
23348 1 28.833 4.79404 1.56408 0 0 1 0.934449 -1.36154 -0.353813 
23712 1 28.7063 4.23508 0.663159 0 0 1 -1.40921 -2.23762 0.292626 
23716 1 30.5158 4.93483 33.2035 0 0 0 1.58217 0.0913372 -0.770971 
4866 1 30.4335 4.17053 0.321274 0 0 0 -2.82567 -1.7016 -0.0831461 
23756 1 30.0313 6.57848 0.276343 0 0 1 0.0297112 0.137513 2.44026 
4114 1 31.3571 4.42568 33.1404 0 0 -1 2.23738 -1.94229 -2.47962 
4957 1 30.2382 3.58232 33.0479 0 0 -1 -0.489537 -0.000423863 -2.24255 
4509 1 31.8512 4.83676 0.510969 0 0 0 0.147801 1.06541 0.548282 
4154 1 31.5229 5.37038 32.8876 0 0 -1 1.09154 -0.0271786 0.512693 
19763 1 32.707 4.3074 0.0572994 -1 0 1 0.698359 0.21749 -1.89517 
19761 1 0.979763 6.56888 33.5156 0 0 0 1.3604 -0.71414 0.200651 
601 1 0.608246 7.58917 1.11433 0 0 0 2.11026 0.989708 2.05253 
19368 1 1.93568 7.3904 2.45981 0 0 1 -0.451725 0.184898 0.612504 
126 1 0.629151 5.62004 0.585516 0 0 0 -0.986818 -1.0684 0.768046 
933 1 2.8881 6.85697 0.545408 0 0 0 -0.281498 -1.43579 0.258212 
19688 1 1.93269 6.60272 0.426139 0 0 1 -0.644932 -0.163623 -2.48669 
970 1 4.49503 6.93718 2.10784 0 0 0 -2.76046 -0.137719 0.291548 
19811 1 5.42805 6.74821 2.23132 0 0 1 1.77883 -1.15601 -0.832931 
19736 1 7.04196 6.34405 33.4205 0 0 0 1.04315 0.771443 -1.98973 
139 1 6.15747 6.77866 1.2693 0 0 0 -0.300349 -0.536437 0.687966 
178 1 6.55583 5.92879 0.728406 0 0 0 -2.69503 -1.27542 -2.20886 
143 1 5.24744 6.04475 1.41571 0 0 0 -2.04762 -0.794175 2.87264 
581 1 9.38257 6.59878 1.2514 0 0 0 -0.59277 2.71607 -0.332567 
140 1 8.70114 7.0578 33.4879 0 0 -1 -3.41719 0.831608 0.885463 
184 1 10.1382 5.52725 0.675937 0 0 0 -0.023814 -1.07928 -2.01577 
540 1 9.39041 7.66958 1.69201 0 0 0 -0.202947 -1.16572 -0.431692 
19383 1 10.3846 5.9859 33.3624 0 0 0 3.11966 2.40864 0.17234 
541 1 12.6072 6.10134 1.26361 0 0 0 -1.03626 -0.0782566 0.599344 
545 1 11.3661 5.46399 32.6107 0 0 -1 1.25635 -1.67968 -0.378349 
552 1 11.6421 5.50177 1.08312 0 0 0 0.626442 -0.663087 -0.7001 
625 1 9.99153 5.94677 1.65135 0 0 0 0.809387 -2.3126 0.941679 
19747 1 12.7205 7.53834 2.85639 0 0 1 -2.30739 0.226802 -0.085247 
160 1 13.5729 5.03544 2.01758 0 0 0 0.218419 -1.43377 1.54065 
19796 1 13.2804 6.92535 32.6417 0 0 0 0.9611 1.55839 -1.35708 
19789 1 14.0286 6.50685 1.19541 0 0 1 -0.270933 1.10962 -3.26829 
560 1 15.0953 7.16081 0.950992 0 0 0 1.44847 1.04926 0.185462 
594 1 14.299 5.47856 0.947236 0 0 0 -0.914714 0.180729 2.92499 
235 1 14.9614 6.21472 0.0929641 0 0 0 0.638002 1.47089 0.711953 
198 1 16.9955 6.75874 0.374727 0 0 0 0.582776 -0.981755 -1.50177 
23727 1 17.1297 5.70215 0.435481 0 0 1 1.72921 0.533822 -0.76128 
4136 1 19.0809 7.20864 0.116216 0 0 0 1.28527 3.25792 -0.355477 
23807 1 18.715 6.08276 1.06912 0 0 1 0.777541 -0.805156 0.527191 
4167 1 19.9107 6.64857 2.37356 0 0 0 3.68237 -0.280722 0.0835151 
4213 1 19.493 6.91937 1.25286 0 0 0 1.59264 -0.0124056 0.489327 
4525 1 18.5019 7.94412 1.40866 0 0 0 -0.813997 -0.483689 -0.367536 
4574 1 21.8487 6.35664 0.886196 0 0 0 -0.584453 -1.72029 2.13622 
23808 1 21.3308 7.4442 32.9508 0 0 0 0.509733 -0.0786719 0.2543 
23740 1 22.6952 4.92703 1.70724 0 0 1 -2.8437 -0.35092 2.30243 
4217 1 22.9263 6.98844 0.837341 0 0 0 -1.52178 -0.456172 2.70448 
4617 1 22.6843 6.18192 1.46327 0 0 0 -0.627638 1.11462 -1.1096 
4139 1 22.924 6.08694 0.296928 0 0 0 0.691029 0.244252 0.623906 
4175 1 23.8182 6.78277 1.34235 0 0 0 -0.774943 1.79937 0.730018 
4174 1 24.4126 6.00676 0.662082 0 0 0 -1.08926 1.59427 -0.529718 
4573 1 24.6924 7.3628 1.22099 0 0 0 -0.656029 0.819066 1.37936 
23744 1 23.6507 6.81632 32.0998 0 0 0 0.1551 0.669509 0.00571367 
4221 1 24.8809 6.56335 33.2818 0 0 -1 1.36683 -1.11784 -0.565438 
23779 1 25.791 6.56197 0.0555759 0 0 1 0.543131 0.974406 2.17037 
4261 1 26.148 6.68721 2.80058 0 0 0 -0.377271 -1.72166 -1.37094 
4225 1 27.6351 6.93133 1.6435 0 0 0 -1.22861 -0.99718 0.32179 
23788 1 28.5787 6.12423 1.65718 0 0 1 -0.238316 -1.7895 -0.241629 
4219 1 25.9204 5.62794 1.00871 0 0 0 2.01915 0.469568 2.07542 
23429 1 27.6615 6.70295 0.335117 0 0 1 1.19888 1.77567 1.39939 
4191 1 29.4319 6.32619 1.13653 0 0 0 2.59095 -0.367161 -1.34454 
4229 1 30.2954 7.48945 0.653786 0 0 0 -3.03864 1.49918 -0.897334 
23789 1 29.0766 5.44847 0.938012 0 0 1 -0.614356 -1.84125 -1.46837 
4987 1 31.2283 5.7328 1.94188 0 0 0 -0.441498 -0.2011 1.49058 
4150 1 30.1974 5.63543 1.51792 0 0 0 -0.46027 0.565879 0.547501 
22956 1 30.7588 7.6084 33.3085 0 0 0 1.14452 0.405608 0.604525 
4558 1 30.9866 6.67514 0.696828 0 0 0 0.217676 -1.45292 -1.144 
4557 1 32.043 6.44782 0.254767 0 0 0 -0.716345 -0.204679 1.31141 
4156 1 0.255925 6.77702 0.689999 1 0 0 1.11528 1.94685 0.427157 
4158 1 32.3461 7.78022 0.37447 0 0 0 -0.205063 1.02498 -0.381059 
19364 1 30.8705 6.79577 1.68211 -1 0 1 -1.10901 -2.69373 0.881889 
201 1 0.76784 7.64744 2.14591 0 0 0 -0.366872 -0.00393681 0.0503482 
603 1 0.182543 8.5082 1.6877 0 0 0 -1.60336 1.31224 -0.372194 
172 1 1.55199 8.42758 2.18529 0 0 0 -0.851008 1.59636 1.1094 
162 1 5.05775 6.89405 1.11734 0 0 0 -0.665154 1.03051 0.857121 
4638 1 2.7983 7.79259 0.562468 1 0 0 -0.544395 -0.24683 1.26205 
209 1 3.63407 8.5442 0.811701 0 0 0 0.304081 1.93358 -0.139295 
535 1 4.60616 7.77349 1.54542 0 0 0 -0.675429 1.82436 1.53295 
174 1 5.58908 7.64625 0.704476 0 0 0 -0.011599 -1.67105 0.243536 
177 1 5.96664 8.85326 0.731235 0 0 0 0.118486 3.10221 1.60062 
573 1 6.90021 8.57707 1.29876 0 0 0 0.285378 -0.402294 0.933641 
578 1 8.68657 8.44664 1.64991 0 0 0 0.303396 -0.211113 1.47384 
19740 1 7.74112 7.96858 1.24292 0 0 1 1.68037 -2.37337 -1.86036 
19419 1 7.27386 6.41442 1.22978 0 0 1 -2.72802 -0.619997 0.421817 
223 1 10.2418 7.92564 2.09555 0 0 0 -0.28453 1.48124 -1.40328 
229 1 11.7601 8.69975 0.960037 0 0 0 -1.35854 0.229185 -0.111187 
546 1 11.5411 7.74246 0.503918 0 0 0 -0.957791 0.76305 1.52332 
586 1 10.3299 6.91478 1.33672 0 0 0 0.246979 -0.472323 1.13847 
1029 1 10.8463 6.99685 0.160393 0 0 0 -1.70833 -0.556314 0.0370021 
148 1 12.1591 6.63073 0.516541 0 0 0 0.29385 0.173735 -1.13897 
189 1 11.4674 8.98608 32.9943 0 0 -1 -0.638761 0.319777 -0.341035 
19830 1 11.7529 6.40287 1.61028 0 0 1 3.01534 1.86275 -1.0889 
270 1 12.2898 7.53518 1.51471 0 0 0 -3.38302 -1.94835 -1.01346 
200 1 14.1549 6.89394 0.248431 0 0 0 -0.0185374 0.304978 0.659227 
236 1 15.4102 8.80078 0.561154 0 0 0 1.19251 0.672934 0.274079 
597 1 14.4604 7.14963 1.81878 0 0 0 0.422977 1.88642 -0.360669 
637 1 15.1409 7.45598 33.5431 0 0 -1 -1.1815 1.15101 0.203023 
4081 1 16.2619 8.77893 1.22905 0 0 0 0.662338 0.174321 -0.398817 
4164 1 16.352 8.17756 2.1775 0 0 0 -1.17711 -2.00893 -2.34497 
19800 1 16.6392 8.04328 0.288931 0 0 1 -2.12371 1.56174 0.166191 
4212 1 18.4832 8.80734 2.06764 0 0 0 -0.566669 0.23565 1.73462 
4602 1 17.9789 8.62193 0.439813 0 0 0 0.774794 -0.368299 0.181988 
4166 1 20.5037 7.29878 1.70739 0 0 0 0.943204 -1.89864 -1.94039 
4612 1 18.0096 9.20363 1.22822 0 0 0 0.395286 0.952441 -2.28268 
23805 1 19.4176 8.17303 0.64804 0 0 1 -1.14934 0.248074 0.285049 
4255 1 21.3798 8.51131 33.0841 0 0 -1 1.38852 0.764999 -2.50905 
4652 1 21.2094 8.24107 1.37634 0 0 0 -1.22417 -3.51973 1.55178 
4536 1 20.7253 6.42576 1.19247 0 0 0 0.343847 1.27373 -1.20161 
23411 1 20.0249 7.19129 33.3461 0 0 0 -1.03289 -1.17219 -3.01842 
4653 1 23.3605 8.09495 2.26094 0 0 0 0.264949 -1.77974 0.309413 
5052 1 21.4102 7.45784 0.518179 0 0 0 0.433849 -0.895201 -1.90374 
4256 1 22.2892 7.95474 33.4729 0 0 -1 -0.583445 -0.636643 -0.866465 
5010 1 24.0707 7.99835 33.0759 0 0 -1 -2.16185 1.23863 1.01991 
4220 1 22.1019 7.61853 1.16787 0 0 0 0.453447 1.68878 -1.50485 
23863 1 25.386 7.80309 2.02091 0 0 1 1.8308 0.421421 0.359832 
4500 1 24.9065 9.20427 1.19396 0 0 0 -0.492993 -1.19591 -0.634633 
4188 1 25.8989 6.97202 1.14995 0 0 0 0.981773 1.19198 -0.889589 
4626 1 26.9368 7.62273 1.48368 0 0 0 0.213416 -0.939298 -0.544383 
4308 1 27.4116 9.77722 1.65921 0 0 0 1.01738 0.73306 -1.60473 
4625 1 28.5219 7.30391 1.19932 0 0 0 0.0828059 0.309104 -0.500565 
4231 1 29.4978 9.05263 1.49112 0 0 0 -1.74592 -0.596855 -1.17554 
4186 1 28.3512 8.6484 1.4243 0 0 0 0.711157 -0.485471 -2.82902 
4193 1 29.0833 8.4102 0.700583 0 0 0 -0.95199 -1.5635 -0.793032 
4990 1 29.9663 6.68416 2.01332 0 0 0 -0.845495 -0.276367 1.02298 
23791 1 30.3906 8.59872 1.0462 0 0 1 -0.331207 -0.270795 -1.94464 
4195 1 33.1222 8.06991 1.11048 0 0 0 0.481339 -0.457656 -1.95256 
23796 1 31.4529 8.55404 1.59279 0 0 1 -2.74624 1.10636 0.347952 
4597 1 1.5281 9.52035 2.20111 1 0 0 -1.88791 -1.44107 0.673457 
4639 1 0.0929711 9.63673 33.43 1 0 -1 -1.34017 -1.18813 1.90424 
19801 1 1.53849 9.30946 0.400818 0 0 1 0.773831 -0.899764 -0.953426 
204 1 3.30871 9.2288 1.49355 0 0 0 0.697367 -0.325821 0.893548 
205 1 0.795723 9.5647 1.23944 0 0 0 1.544 -1.49623 1.46355 
19843 1 1.5272 9.4137 32.8289 0 0 0 -2.35832 -0.0807644 -0.536264 
166 1 3.10913 7.8613 32.9764 0 0 -1 0.404269 0.98519 -3.10666 
645 1 4.13537 9.96537 1.98725 0 0 0 0.368702 -1.56491 0.860743 
167 1 3.89625 8.51637 33.4535 0 0 -1 -0.869514 -0.691044 0.244272 
19813 1 4.89005 8.47967 0.514642 0 0 1 -0.81673 -0.976185 -0.667234 
19416 1 3.79738 9.89712 0.778535 0 0 1 -1.89146 -0.0871014 0.403148 
19860 1 5.7002 9.93316 1.07798 0 0 1 0.631126 -0.838678 0.963338 
701 1 6.61827 10.3829 0.741346 0 0 0 -0.617548 0.74496 -1.17886 
182 1 7.01578 9.51936 1.33417 0 0 0 1.18488 0.898084 -1.20801 
180 1 8.05322 9.01254 0.734674 0 0 0 -0.710754 -0.761524 0.191926 
221 1 10.4155 8.08591 0.174046 0 0 0 -0.726402 0.753913 -2.0347 
665 1 10.5907 10.9743 1.41205 0 0 0 -0.731168 -1.4864 -0.92798 
227 1 9.54788 8.78837 1.86237 0 0 0 -0.654228 -0.326061 -0.0541393 
183 1 9.78048 7.01864 0.458939 0 0 0 0.649941 1.20111 0.715072 
266 1 8.83651 10.1021 1.15204 0 0 0 0.572544 -0.143172 -0.0571763 
187 1 11.5412 10.0804 0.919706 0 0 0 1.46485 0.309976 1.16199 
629 1 10.7174 8.4394 1.43395 0 0 0 -0.751723 -0.125863 0.0195463 
633 1 10.7463 10.1488 2.26336 0 0 0 0.694885 0.906483 0.425491 
231 1 12.4974 8.40497 33.2597 0 0 -1 -1.58171 0.600744 -2.55708 
19874 1 14.2878 9.21783 0.638378 0 0 1 -0.0821851 -0.990016 0.431723 
634 1 15.0532 9.30998 1.37826 0 0 0 2.0659 0.556983 -0.861908 
232 1 13.0176 7.28323 0.768144 0 0 0 -2.89126 -0.8544 3.2 
638 1 14.0462 10.3443 0.409331 0 0 0 -0.112458 1.4942 -0.0658614 
239 1 15.643 7.55502 32.6193 0 0 -1 -1.27273 0.0393777 0.027792 
276 1 14.9268 9.73901 0.129051 0 0 0 -0.806682 -0.030704 2.91427 
4204 1 16.1179 9.72677 0.533653 0 0 0 -0.808815 -0.793994 -0.327497 
4163 1 17.1101 9.00311 0.183474 0 0 0 -0.61712 -2.27317 0.951817 
4243 1 17.6806 8.59372 32.8041 0 0 -1 1.18658 0.860624 -0.278144 
23801 1 16.2496 8.90053 33.3478 0 0 0 3.74805 1.20498 -0.527446 
19440 1 16.1299 10.016 32.9826 0 0 0 0.900663 0.424166 0.614186 
558 1 17.3384 8.74005 1.97341 0 0 0 -1.24237 -0.101592 -0.553291 
4645 1 16.9265 9.51083 1.01769 0 0 0 0.157104 -1.56874 -0.633599 
4607 1 17.941 10.1465 0.509266 0 0 0 -1.45362 -1.18873 -0.111631 
4210 1 20.4588 8.96807 0.750241 0 0 0 -0.525138 -0.0070578 -0.00231884 
4687 1 19.2066 9.55817 2.27081 0 0 0 -1.37797 -0.430222 -1.21784 
4249 1 19.9289 9.34103 1.58157 0 0 0 -1.75166 1.15104 -0.912035 
4289 1 20.5224 8.87593 32.526 0 0 -1 -0.711027 -4.43889 -2.4425 
23856 1 20.5412 10.1691 1.97136 0 0 1 -0.0639973 -0.219242 -2.00279 
4650 1 22.6799 9.63212 1.15065 0 0 0 1.79979 2.9333 -0.253929 
4293 1 21.2359 9.63541 33.5888 0 0 -1 0.1081 -2.29287 1.21575 
23860 1 22.446 9.11594 32.8634 0 0 0 0.136001 0.580753 -0.632353 
4294 1 22.9291 8.5755 0.522722 0 0 0 0.0602057 -0.4178 -1.05915 
4264 1 23.3003 7.39666 33.1622 0 0 -1 -1.11196 0.698416 -2.54067 
4743 1 24.0128 9.02549 0.423649 0 0 0 0.572215 0.367908 -1.51673 
4223 1 25.9947 9.44404 1.146 0 0 0 -1.40313 1.34922 -0.313702 
4257 1 25.332 10.1195 0.631709 0 0 0 -0.0518204 0.939889 2.60384 
4266 1 26.8119 9.72697 0.500329 0 0 0 0.469642 2.45321 -0.382207 
23867 1 28.516 9.49835 2.46346 0 0 1 -2.50455 1.04748 1.2833 
4705 1 26.8367 8.93502 2.06891 0 0 0 -1.25238 -0.117016 -0.183012 
4272 1 26.4553 10.1012 1.6558 0 0 0 1.37064 -0.194234 -2.97656 
4232 1 28.1266 10.1339 0.306682 0 0 0 -2.56558 1.52761 1.6247 
23431 1 29.1226 10.0048 1.74837 0 0 1 -0.58245 1.49023 1.73985 
23871 1 30.1731 9.69974 1.07491 0 0 1 -0.933867 3.32146 2.0268 
4190 1 32.6092 9.73184 0.131211 0 0 0 1.21021 0.461882 -1.37589 
23880 1 29.7959 10.9733 1.6538 0 0 1 -0.776264 0.622339 -1.03948 
4234 1 31.6863 8.78523 2.58802 0 0 0 0.609862 0.957464 0.503258 
4230 1 32.7783 10.5151 1.40262 0 0 0 0.962973 -0.772702 -0.253909 
4233 1 0.304425 10.4074 1.4017 1 0 0 -0.807051 0.320072 0.618909 
242 1 0.280203 11.2321 0.247317 0 0 0 0.36 -1.63967 -3.08068 
1002 1 1.30321 10.2558 0.514962 0 0 0 0.214637 -0.0231382 -0.602058 
283 1 3.14666 10.1596 33.5375 0 0 -1 2.03597 -1.53768 -1.21775 
1008 1 2.48959 11.2813 2.30823 0 0 0 -0.425971 0.945054 0.887219 
646 1 3.35354 11.2168 0.0725549 0 0 0 0.198788 -1.36306 0.431934 
19807 1 3.00079 11.5253 1.03251 0 0 1 0.866576 0.433411 -1.2823 
163 1 5.79166 11.088 0.810315 0 0 0 -0.176567 -1.52122 1.61536 
256 1 4.65283 10.5864 0.663655 0 0 0 0.154677 -1.0264 0.271025 
653 1 7.15396 11.4234 1.17047 0 0 0 0.592699 0.289464 1.48283 
695 1 7.9082 9.69271 33.4743 0 0 -1 -1.8574 1.02037 0.909238 
654 1 6.10544 11.9282 1.36265 0 0 0 1.26605 0.328797 -0.242714 
655 1 5.41269 11.7317 0.160238 0 0 0 -0.277212 0.629142 1.72833 
268 1 7.93261 9.92846 0.945219 0 0 0 -1.32665 -1.4916 1.0604 
262 1 7.80176 10.8663 0.451635 0 0 0 1.59936 -0.643183 2.03137 
709 1 9.84639 10.903 0.475831 0 0 0 0.290098 -0.42191 -0.861466 
1065 1 8.34968 10.8959 1.5388 0 0 0 1.62779 -0.618089 -2.79581 
19828 1 9.71705 9.906 0.320006 0 0 1 1.20966 0.963988 1.63182 
632 1 11.888 9.88358 33.5588 0 0 -1 0.753913 -0.676628 -0.0408438 
670 1 11.4162 10.9964 0.766113 0 0 0 -1.93032 1.02223 0.935216 
19876 1 11.0763 11.4122 33.4201 0 0 0 1.96761 -0.631934 0.20255 
316 1 12.213 11.0943 33.5564 0 0 -1 0.940925 -0.887203 2.86981 
353 1 13.0295 10.4847 33.3768 0 0 -1 0.233958 -0.548073 -1.81918 
269 1 12.4452 10.1826 0.957569 0 0 0 -0.904793 -0.353255 -1.00445 
1076 1 13.8575 9.80853 33.1585 0 0 -1 0.679525 -0.536235 1.47165 
677 1 15.3008 10.4727 0.817007 0 0 0 1.33092 -0.960598 -2.62322 
717 1 14.8157 10.9344 33.2647 0 0 -1 -1.2161 -0.538563 -1.59561 
234 1 16.4016 10.6202 0.881731 0 0 0 -0.106401 1.34926 0.305258 
678 1 16.8787 10.3594 33.5755 0 0 -1 1.14513 -0.663043 0.141061 