ITEM: TIMESTEP
0
ITEM: NUMBER OF ATOMS
32
ITEM: BOX BOUNDS pp pp pp
0 4.67813
0 8.10275
-0.584766 0.584766
ITEM: ATOMS id type x y z
1 1 0 0 0.5 
2 1 0.125 0.125 0.5 
3 1 0.25 0 0.5 
4 1 0.375 0.125 0.5 
5 1 0.5 0 0.5 
6 1 0.625 0.125 0.5 
7 1 0.75 0 0.5 
8 1 0.875 0.125 0.5 
9 1 0 0.25 0.5 
10 1 0.125 0.375 0.5 
11 1 0.25 0.25 0.5 
12 1 0.375 0.375 0.5 
13 1 0.5 0.25 0.5 
14 1 0.625 0.375 0.5 
15 1 0.75 0.25 0.5 
16 1 0.875 0.375 0.5 
17 1 0 0.5 0.5 
19 1 0.25 0.5 0.5 
21 1 0.5 0.5 0.5 
23 1 0.75 0.5 0.5 
18 1 0.125 0.625 0.5 
25 1 0 0.75 0.5 
27 1 0.25 0.75 0.5 
20 1 0.375 0.625 0.5 
22 1 0.625 0.625 0.5 
29 1 0.5 0.75 0.5 
24 1 0.875 0.625 0.5 
31 1 0.75 0.75 0.5 
26 1 0.125 0.875 0.5 
28 1 0.375 0.875 0.5 
30 1 0.625 0.875 0.5 
32 1 0.875 0.875 0.5 
ITEM: TIMESTEP
50
ITEM: NUMBER OF ATOMS
32
ITEM: BOX BOUNDS pp pp pp
0 4.67813
0 8.10275
-0.584766 0.584766
ITEM: ATOMS id type x y z
1 1 0.0409585 0.987483 0.5 
2 1 0.156765 0.103204 0.5 
3 1 0.249195 0.955389 0.5 
4 1 0.390097 0.15651 0.5 
5 1 0.464245 0.0437921 0.5 
6 1 0.620846 0.140343 0.5 
7 1 0.699384 0.0217441 0.5 
8 1 0.902883 0.0848237 0.5 
9 1 0.00397603 0.243196 0.5 
10 1 0.11154 0.358258 0.5 
11 1 0.233741 0.237772 0.5 
12 1 0.316927 0.407972 0.5 
13 1 0.429353 0.287775 0.5 
14 1 0.635327 0.348456 0.5 
15 1 0.753653 0.233579 0.5 
16 1 0.864793 0.345755 0.5 
17 1 0.96497 0.522503 0.5 
19 1 0.20277 0.516198 0.5 
21 1 0.525627 0.464886 0.5 
23 1 0.752368 0.458793 0.5 
18 1 0.21959 0.655004 0.5 
25 1 0.0273671 0.742748 0.5 
27 1 0.217702 0.79306 0.5 
20 1 0.392234 0.58335 0.5 
22 1 0.635714 0.595967 0.5 
29 1 0.613843 0.749743 0.5 
24 1 0.889344 0.637627 0.5 
31 1 0.820581 0.769909 0.5 
26 1 0.0273492 0.862088 0.5 
28 1 0.403936 0.857219 0.5 
30 1 0.592167 0.905864 0.5 
32 1 0.840756 0.928991 0.5 
ITEM: TIMESTEP
100
ITEM: NUMBER OF ATOMS
32
ITEM: BOX BOUNDS pp pp pp
0 4.67813
0 8.10275
-0.584766 0.584766
ITEM: ATOMS id type x y z
1 1 0.0316298 0.991993 0.5 
2 1 0.227121 0.0649737 0.5 
3 1 0.260767 0.94082 0.5 
4 1 0.37263 0.163642 0.5 
5 1 0.464248 0.0223905 0.5 
6 1 0.56728 0.182463 0.5 
7 1 0.686964 0.0537829 0.5 
8 1 0.886914 0.0870387 0.5 
9 1 0.972747 0.236859 0.5 
10 1 0.1207 0.377638 0.5 
11 1 0.203865 0.227001 0.5 
12 1 0.310159 0.438337 0.5 
13 1 0.414493 0.303064 0.5 
14 1 0.666117 0.332908 0.5 
15 1 0.76738 0.209046 0.5 
16 1 0.88022 0.34912 0.5 
17 1 0.945113 0.524707 0.5 
19 1 0.154786 0.542412 0.5 
21 1 0.541905 0.439237 0.5 
23 1 0.757146 0.457017 0.5 
18 1 0.286661 0.661012 0.5 
25 1 0.0284742 0.689257 0.5 
27 1 0.238289 0.807519 0.5 
20 1 0.426643 0.559965 0.5 
22 1 0.643219 0.577446 0.5 
29 1 0.580896 0.699947 0.5 
24 1 0.792277 0.692196 0.5 
31 1 0.79911 0.827922 0.5 
26 1 0.0351182 0.86859 0.5 
28 1 0.460375 0.811167 0.5 
30 1 0.635794 0.911177 0.5 
32 1 0.840959 0.949351 0.5 
ITEM: TIMESTEP
150
ITEM: NUMBER OF ATOMS
32
ITEM: BOX BOUNDS pp pp pp
0 4.67813
0 8.10275
-0.584766 0.584766
ITEM: ATOMS id type x y z
1 1 0.0350794 0.976359 0.5 
2 1 0.188075 0.0765786 0.5 
3 1 0.294692 0.895268 0.5 
4 1 0.382221 0.155638 0.5 
5 1 0.4368 0.0198844 0.5 
6 1 0.594836 0.194651 0.5 
7 1 0.644354 0.0826437 0.5 
8 1 0.962268 0.104146 0.5 
9 1 0.0175291 0.236582 0.5 
10 1 0.0735956 0.431499 0.5 
11 1 0.230392 0.273182 0.5 
12 1 0.290268 0.447022 0.5 
13 1 0.46087 0.289941 0.5 
14 1 0.693682 0.318499 0.5 
15 1 0.802277 0.198528 0.5 
16 1 0.896355 0.349034 0.5 
17 1 0.923486 0.544307 0.5 
19 1 0.169328 0.565249 0.5 
21 1 0.498968 0.41713 0.5 
23 1 0.735752 0.455004 0.5 
18 1 0.327315 0.679763 0.5 
25 1 0.0298778 0.663948 0.5 
27 1 0.212535 0.774914 0.5 
20 1 0.434697 0.533056 0.5 
22 1 0.709724 0.577345 0.5 
29 1 0.583486 0.682849 0.5 
24 1 0.782728 0.698944 0.5 
31 1 0.745512 0.832202 0.5 
26 1 -0.0098688 0.854269 0.5 
28 1 0.48116 0.795599 0.5 
30 1 0.553122 0.911555 0.5 
32 1 0.818885 0.964409 0.5 
ITEM: TIMESTEP
200
ITEM: NUMBER OF ATOMS
32
ITEM: BOX BOUNDS pp pp pp
0 4.67813
0 8.10275
-0.584766 0.584766
ITEM: ATOMS id type x y z
1 1 0.039351 0.970605 0.5 
2 1 0.19257 0.0743211 0.5 
3 1 0.321484 0.914976 0.5 
4 1 0.371097 0.201482 0.5 
5 1 0.405783 0.0369063 0.5 
6 1 0.576689 0.161061 0.5 
7 1 0.653703 0.0367525 0.5 
8 1 0.856616 0.0561777 0.5 
9 1 0.0804559 0.197466 0.5 
10 1 0.0587276 0.428058 0.5 
11 1 0.221489 0.301084 0.5 
12 1 0.285426 0.422963 0.5 
13 1 0.443222 0.312954 0.5 
14 1 0.665471 0.313138 0.5 
15 1 0.829022 0.213109 0.5 
16 1 0.888111 0.328846 0.5 
17 1 0.962133 0.573803 0.5 
19 1 0.194192 0.548289 0.5 
21 1 0.566049 0.431654 0.5 
23 1 0.806428 0.467177 0.5 
18 1 0.335501 0.672444 0.5 
25 1 0.113159 0.668277 0.5 
27 1 0.143978 0.819812 0.5 
20 1 0.470919 0.540337 0.5 
22 1 0.721761 0.602899 0.5 
29 1 0.576192 0.695132 0.5 
24 1 0.845251 0.706782 0.5 
31 1 0.659206 0.803941 0.5 
26 1 0.94937 0.848961 0.5 
28 1 0.418088 0.794233 0.5 
30 1 0.558477 0.934616 0.5 
32 1 0.790076 0.921746 0.5 
ITEM: TIMESTEP
250
ITEM: NUMBER OF ATOMS
32
ITEM: BOX BOUNDS pp pp pp
0 4.67813
0 8.10275
-0.584766 0.584766
ITEM: ATOMS id type x y z
1 1 0.0608263 0.938111 0.5 
2 1 0.184595 0.0743544 0.5 
3 1 0.289236 0.954678 0.5 
4 1 0.288785 0.201839 0.5 
5 1 0.409225 0.0931363 0.5 
6 1 0.577324 0.191734 0.5 
7 1 0.635303 0.048761 0.5 
8 1 0.886756 0.0317944 0.5 
9 1 -0.00936697 0.148577 0.5 
10 1 0.126882 0.442549 0.5 
11 1 0.16202 0.303393 0.5 
12 1 0.371982 0.450814 0.5 
13 1 0.46903 0.297018 0.5 
14 1 0.704605 0.291287 0.5 
15 1 0.774693 0.148786 0.5 
16 1 0.926578 0.336471 0.5 
17 1 0.0125559 0.58138 0.5 
19 1 0.223786 0.554381 0.5 
21 1 0.617439 0.430902 0.5 
23 1 0.892198 0.470121 0.5 
18 1 0.302249 0.677167 0.5 
25 1 0.0633859 0.733066 0.5 
27 1 0.170083 0.839142 0.5 
20 1 0.469483 0.573906 0.5 
22 1 0.713622 0.552066 0.5 
29 1 0.604559 0.677871 0.5 
24 1 0.84673 0.697996 0.5 
31 1 0.649065 0.793457 0.5 
26 1 0.922112 0.822283 0.5 
28 1 0.427788 0.765762 0.5 
30 1 0.507989 0.950793 0.5 
32 1 0.71848 0.926404 0.5 
