ITEM: TIMESTEP
0
ITEM: NUMBER OF ATOMS
32
ITEM: BOX BOUNDS pp pp pp
0.0000000000000000e+00 4.6781269340488443e+00
0.0000000000000000e+00 8.1027535340290164e+00
-5.8476586675610553e-01 5.8476586675610553e-01
ITEM: ATOMS id type x y z 
1 1 0 0 0 
2 1 0.584766 1.01284 0 
3 1 1.16953 0 0 
4 1 1.7543 1.01284 0 
5 1 2.33906 0 0 
6 1 2.92383 1.01284 0 
7 1 3.5086 0 0 
8 1 4.09336 1.01284 0 
9 1 0 2.02569 0 
10 1 0.584766 3.03853 0 
11 1 1.16953 2.02569 0 
12 1 1.7543 3.03853 0 
13 1 2.33906 2.02569 0 
14 1 2.92383 3.03853 0 
15 1 3.5086 2.02569 0 
16 1 4.09336 3.03853 0 
17 1 0 4.05138 0 
19 1 1.16953 4.05138 0 
21 1 2.33906 4.05138 0 
23 1 3.5086 4.05138 0 
18 1 0.584766 5.06422 0 
25 1 0 6.07707 0 
27 1 1.16953 6.07707 0 
20 1 1.7543 5.06422 0 
22 1 2.92383 5.06422 0 
29 1 2.33906 6.07707 0 
24 1 4.09336 5.06422 0 
31 1 3.5086 6.07707 0 
26 1 0.584766 7.08991 0 
28 1 1.7543 7.08991 0 
30 1 2.92383 7.08991 0 
32 1 4.09336 7.08991 0 
ITEM: TIMESTEP
50
ITEM: NUMBER OF ATOMS
32
ITEM: BOX BOUNDS pp pp pp
0.0000000000000000e+00 4.6781269340488443e+00
0.0000000000000000e+00 8.1027535340290164e+00
-5.8476586675610553e-01 5.8476586675610553e-01
ITEM: ATOMS id type x y z 
1 1 0.191609 8.00133 0 
2 1 0.733368 0.836233 0 
3 1 1.16577 7.74128 0 
4 1 1.82492 1.26816 0 
5 1 2.1718 0.354837 0 
6 1 2.9044 1.13716 0 
7 1 3.27181 0.176187 0 
8 1 4.2238 0.687306 0 
9 1 0.0186004 1.97056 0 
10 1 0.521797 2.90288 0 
11 1 1.09347 1.92661 0 
12 1 1.48263 3.3057 0 
13 1 2.00857 2.33177 0 
14 1 2.97214 2.82345 0 
15 1 3.52568 1.89263 0 
16 1 4.04561 2.80157 0 
17 1 4.51425 4.23371 0 
19 1 0.948585 4.18262 0 
21 1 2.45895 3.76685 0 
23 1 3.51967 3.71749 0 
18 1 1.02727 5.30734 0 
25 1 0.128027 6.01831 0 
27 1 1.01844 6.42597 0 
20 1 1.83492 4.72674 0 
22 1 2.97395 4.82897 0 
29 1 2.87163 6.07498 0 
24 1 4.16046 5.16653 0 
31 1 3.83878 6.23838 0 
26 1 0.127943 6.98529 0 
28 1 1.88966 6.94583 0 
30 1 2.77023 7.33999 0 
32 1 3.93316 7.52738 0 
ITEM: TIMESTEP
100
ITEM: NUMBER OF ATOMS
32
ITEM: BOX BOUNDS pp pp pp
0.0000000000000000e+00 4.6781269340488443e+00
0.0000000000000000e+00 8.1027535340290164e+00
-5.8476586675610553e-01 5.8476586675610553e-01
ITEM: ATOMS id type x y z 
1 1 0.147968 8.03788 0 
2 1 1.0625 0.526466 0 
3 1 1.2199 7.62323 0 
4 1 1.74321 1.32595 0 
5 1 2.17181 0.181425 0 
6 1 2.65381 1.47846 0 
7 1 3.2137 0.43579 0 
8 1 4.1491 0.705253 0 
9 1 4.55063 1.91921 0 
10 1 0.564651 3.05991 0 
11 1 0.953707 1.83933 0 
12 1 1.45096 3.55174 0 
13 1 1.93905 2.45565 0 
14 1 3.11618 2.69747 0 
15 1 3.5899 1.69385 0 
16 1 4.11778 2.82883 0 
17 1 4.42136 4.25157 0 
19 1 0.72411 4.39503 0 
21 1 2.5351 3.55903 0 
23 1 3.54202 3.7031 0 
18 1 1.34104 5.35601 0 
25 1 0.133206 5.58488 0 
27 1 1.11475 6.54312 0 
20 1 1.99589 4.53726 0 
22 1 3.00906 4.67891 0 
29 1 2.71751 5.6715 0 
24 1 3.70637 5.60869 0 
31 1 3.73834 6.70845 0 
26 1 0.164288 7.03797 0 
28 1 2.15369 6.57269 0 
30 1 2.97433 7.38304 0 
32 1 3.93411 7.69236 0 
ITEM: TIMESTEP
150
ITEM: NUMBER OF ATOMS
32
ITEM: BOX BOUNDS pp pp pp
0.0000000000000000e+00 4.6781269340488443e+00
0.0000000000000000e+00 8.1027535340290164e+00
-5.8476586675610553e-01 5.8476586675610553e-01
ITEM: ATOMS id type x y z 
1 1 0.164106 7.9112 0 
2 1 0.879837 0.620498 0 
3 1 1.37861 7.25414 0 
4 1 1.78808 1.26109 0 
5 1 2.04341 0.161119 0 
6 1 2.78272 1.57721 0 
7 1 3.01437 0.669641 0 
8 1 4.50161 0.843866 0 
9 1 0.0820034 1.91697 0 
10 1 0.344289 3.49633 0 
11 1 1.0778 2.21353 0 
12 1 1.35791 3.62211 0 
13 1 2.15601 2.34932 0 
14 1 3.24513 2.58072 0 
15 1 3.75315 1.60862 0 
16 1 4.19326 2.82813 0 
17 1 4.32019 4.41038 0 
19 1 0.792136 4.58007 0 
21 1 2.33423 3.3799 0 
23 1 3.44194 3.68679 0 
18 1 1.53122 5.50796 0 
25 1 0.139772 5.37981 0 
27 1 0.994265 6.27894 0 
20 1 2.03357 4.31922 0 
22 1 3.32018 4.67809 0 
29 1 2.72962 5.53296 0 
24 1 3.6617 5.66337 0 
31 1 3.4876 6.74313 0 
26 1 -0.0461675 6.92193 0 
28 1 2.25093 6.44654 0 
30 1 2.58758 7.38611 0 
32 1 3.83085 7.81437 0 
ITEM: TIMESTEP
200
ITEM: NUMBER OF ATOMS
32
ITEM: BOX BOUNDS pp pp pp
0.0000000000000000e+00 4.6781269340488443e+00
0.0000000000000000e+00 8.1027535340290164e+00
-5.8476586675610553e-01 5.8476586675610553e-01
ITEM: ATOMS id type x y z 
1 1 0.184089 7.86458 0 
2 1 0.900867 0.602206 0 
3 1 1.50394 7.41382 0 
4 1 1.73604 1.63256 0 
5 1 1.8983 0.299043 0 
6 1 2.69782 1.30504 0 
7 1 3.0581 0.297797 0 
8 1 4.00736 0.455194 0 
9 1 0.376383 1.60002 0 
10 1 0.274735 3.46845 0 
11 1 1.03615 2.43961 0 
12 1 1.33526 3.42717 0 
13 1 2.07345 2.53579 0 
14 1 3.11316 2.53728 0 
15 1 3.87827 1.72677 0 
16 1 4.1547 2.66456 0 
17 1 4.50098 4.64938 0 
19 1 0.908454 4.44265 0 
21 1 2.64805 3.49758 0 
23 1 3.77257 3.78542 0 
18 1 1.56952 5.44865 0 
25 1 0.529374 5.41488 0 
27 1 0.673549 6.64274 0 
20 1 2.20302 4.37822 0 
22 1 3.37649 4.88514 0 
29 1 2.6955 5.63248 0 
24 1 3.95419 5.72688 0 
31 1 3.08385 6.51414 0 
26 1 4.44127 6.87892 0 
28 1 1.95587 6.43548 0 
30 1 2.61262 7.57296 0 
32 1 3.69608 7.46868 0 
ITEM: TIMESTEP
250
ITEM: NUMBER OF ATOMS
32
ITEM: BOX BOUNDS pp pp pp
0.0000000000000000e+00 4.6781269340488443e+00
0.0000000000000000e+00 8.1027535340290164e+00
-5.8476586675610553e-01 5.8476586675610553e-01
ITEM: ATOMS id type x y z 
1 1 0.284553 7.60128 0 
2 1 0.86356 0.602475 0 
3 1 1.35308 7.73552 0 
4 1 1.35097 1.63545 0 
5 1 1.91441 0.75466 0 
6 1 2.7008 1.55357 0 
7 1 2.97203 0.395099 0 
8 1 4.14836 0.257623 0 
9 1 -0.0438199 1.20389 0 
10 1 0.593572 3.58587 0 
11 1 0.75795 2.45832 0 
12 1 1.74018 3.65283 0 
13 1 2.19418 2.40666 0 
14 1 3.29623 2.36023 0 
15 1 3.62411 1.20558 0 
16 1 4.33465 2.72634 0 
17 1 0.0587379 4.71078 0 
19 1 1.0469 4.49201 0 
21 1 2.88846 3.49149 0 
23 1 4.17381 3.80928 0 
18 1 1.41396 5.48692 0 
25 1 0.296527 5.93986 0 
27 1 0.79567 6.79936 0 
20 1 2.1963 4.65022 0 
22 1 3.33841 4.47325 0 
29 1 2.8282 5.49262 0 
24 1 3.96111 5.65569 0 
31 1 3.03641 6.42918 0 
26 1 4.31376 6.66276 0 
28 1 2.00125 6.20478 0 
30 1 2.37644 7.70404 0 
32 1 3.36114 7.50643 0 
