ITEM: TIMESTEP
10000
ITEM: NUMBER OF ATOMS
1
ITEM: BOX BOUNDS pp pp pp
-3 3
-3 3
-3 3
ITEM: ATOMS id type x y z
1 1 0 0 0
